/*--------------------------------*- C++ -*----------------------------------*\
| =========                 |                                                 |
| \\      /  F ield         | OpenFOAM: The Open Source CFD Toolbox           |
|  \\    /   O peration     | Version:  v2012                                 |
|   \\  /    A nd           | Website:  www.openfoam.com                      |
|    \\/     M anipulation  |                                                 |
\*---------------------------------------------------------------------------*/
FoamFile
{
    version     2.0;
    format      ascii;
    class       volScalarField;
    location    "0";
    object      p;
}
// * * * * * * * * * * * * * * * * * * * * * * * * * * * * * * * * * * * * * //

dimensions      [0 2 -2 0 0 0 0];


internalField   nonuniform List<scalar> 
5687
(
4.38587e-08
4.33349e-08
5.48067e-08
5.44815e-08
4.35807e-08
3.08752e-08
5.01979e-08
9.43022e-09
3.21706e-08
1.91437e-08
3.46584e-08
3.35199e-08
5.26467e-10
3.44899e-08
3.26843e-08
5.87981e-08
6.20174e-08
5.47015e-08
5.54487e-08
3.6202e-08
5.44991e-08
7.49237e-10
5.74735e-08
3.04103e-08
1.69438e-10
3.043e-08
1.45059e-08
1.28083e-10
3.09666e-08
3.18366e-08
5.45991e-08
1.64579e-08
9.70492e-09
2.73639e-08
9.72184e-09
5.43059e-08
2.86129e-09
1.95844e-10
2.06781e-10
5.64284e-08
5.64873e-08
6.09841e-08
1.70023e-08
5.32138e-08
5.29749e-08
2.67294e-08
1.84473e-08
3.63772e-08
3.41164e-08
1.45739e-09
4.63335e-08
1.87983e-08
1.80935e-08
1.7044e-08
1.67251e-08
6.10572e-08
6.09232e-08
2.18143e-08
6.45941e-10
1.99382e-08
1.73588e-08
4.21454e-08
1.05283e-08
3.62589e-08
3.51481e-08
3.69145e-08
3.43845e-08
1.68563e-08
3.30054e-08
6.19708e-08
3.60574e-08
4.38895e-08
3.61633e-08
3.64575e-08
5.68182e-08
6.15186e-08
6.23246e-08
3.04141e-08
4.14238e-08
6.23355e-08
3.11629e-08
3.67638e-08
4.34329e-08
4.35317e-08
1.51988e-08
4.34459e-08
5.21767e-08
9.01289e-09
2.55599e-08
1.77538e-08
4.32179e-08
5.30921e-09
5.15338e-08
5.31383e-08
5.32407e-08
4.041e-08
1.73499e-08
1.73827e-08
5.33601e-08
3.01089e-08
2.12487e-09
2.92054e-08
1.53085e-08
5.19128e-08
1.87912e-09
9.0189e-09
5.33631e-08
4.21068e-08
3.69722e-08
1.95875e-08
4.09463e-08
3.8495e-09
4.22713e-08
9.51378e-09
9.87416e-09
4.80295e-08
9.92728e-09
3.66646e-08
5.51499e-08
5.24382e-09
4.78485e-08
2.03153e-08
4.79925e-08
1.72055e-08
1.72312e-08
3.94971e-08
4.72099e-08
4.79881e-08
4.8404e-08
3.96648e-09
3.21342e-09
5.78332e-09
2.42874e-08
1.94968e-08
2.26209e-08
5.90969e-08
5.79894e-08
2.0192e-08
2.39925e-08
2.93794e-08
1.60968e-08
5.61991e-08
1.8214e-09
1.27463e-09
5.13949e-08
6.65428e-09
2.86895e-08
2.38982e-08
3.92715e-08
3.49079e-08
2.70558e-09
3.71994e-08
2.50582e-08
6.07663e-08
3.24952e-08
3.81918e-08
3.72872e-08
3.72556e-08
5.77295e-08
3.86277e-08
2.50508e-08
3.69483e-08
5.14666e-08
4.27552e-08
5.81076e-08
3.5447e-08
3.01536e-08
1.76563e-08
3.53933e-08
1.72168e-08
4.37133e-08
1.70596e-08
3.0557e-08
1.61753e-08
1.88072e-08
4.41448e-08
2.81247e-08
1.46614e-08
7.06178e-09
3.90152e-08
4.06733e-08
5.98903e-09
1.39178e-08
3.05802e-08
5.52936e-08
5.59444e-08
3.02927e-08
4.88419e-08
2.06284e-08
2.24427e-08
4.37273e-08
1.64732e-08
5.59445e-08
5.57742e-08
5.59288e-08
4.67714e-08
3.92187e-08
6.16699e-08
4.0016e-08
5.42188e-08
3.10841e-08
3.00623e-09
6.17588e-08
3.86608e-08
3.89389e-08
1.25992e-08
2.5404e-09
3.89928e-08
4.02068e-08
1.11688e-08
2.59571e-08
6.14043e-08
4.34187e-08
3.83971e-08
3.8816e-08
2.55504e-08
2.54638e-08
2.48407e-09
1.90944e-08
5.64664e-08
5.49919e-08
5.70949e-08
2.57539e-08
5.90078e-08
5.01459e-08
1.97462e-08
1.95122e-08
8.97517e-09
9.23887e-09
5.79986e-08
5.8923e-08
5.88324e-08
2.22823e-08
3.76168e-08
2.17378e-08
3.94404e-08
5.95231e-08
4.10244e-08
4.11626e-08
4.09686e-08
5.28108e-08
4.11917e-08
1.01903e-08
3.07233e-08
1.81745e-08
6.01474e-08
4.17466e-08
5.67211e-08
6.02132e-08
4.12437e-08
5.80312e-08
5.96365e-08
5.74641e-08
5.70761e-08
3.1856e-08
5.2562e-08
4.54617e-08
4.36747e-08
3.32993e-08
5.64507e-08
4.4043e-08
2.53099e-09
4.34239e-08
1.93329e-08
7.13517e-09
4.78426e-08
3.83456e-09
5.08289e-09
5.33703e-08
8.81487e-09
5.74958e-08
3.47438e-08
4.45618e-08
4.26861e-08
5.11725e-09
1.5389e-09
1.9467e-08
1.9439e-08
8.60793e-09
4.06758e-08
3.1712e-08
3.57958e-08
4.03997e-08
8.78886e-09
2.28668e-09
3.466e-08
1.92917e-08
5.3409e-08
5.72283e-08
2.76518e-08
2.81418e-08
5.52937e-08
3.25892e-08
6.18634e-08
3.18107e-08
3.1745e-08
1.01831e-08
2.07567e-08
3.97642e-08
4.58717e-08
2.81692e-08
2.74026e-08
2.84761e-08
2.80351e-08
2.81874e-08
2.37754e-08
3.09859e-08
2.69603e-08
3.02978e-08
5.54315e-08
2.2735e-08
1.08157e-08
3.11093e-08
9.25428e-09
9.88315e-09
3.13971e-08
5.80484e-08
2.15587e-09
7.80372e-09
5.01787e-08
1.81822e-09
2.57564e-09
3.7284e-09
1.97904e-08
5.78793e-08
4.75198e-08
3.00331e-10
5.09192e-08
1.64755e-09
4.12614e-08
1.28677e-08
1.00616e-08
4.61744e-08
3.4689e-08
1.64088e-08
8.44063e-09
3.17803e-08
3.18546e-08
5.30829e-08
3.17373e-08
6.22905e-08
5.13417e-08
6.10224e-08
1.58052e-08
6.11596e-08
1.33002e-08
6.1401e-08
5.2893e-08
5.23933e-08
5.13632e-08
1.13572e-08
2.78287e-09
5.26387e-08
1.58803e-08
1.48004e-08
5.3986e-08
5.2523e-08
8.18451e-09
3.70289e-08
2.38277e-08
5.36245e-08
2.34568e-09
5.23343e-08
3.71311e-08
2.16746e-08
1.43005e-08
8.83355e-09
3.63851e-08
3.13007e-10
3.70045e-08
4.1372e-08
8.18924e-09
4.10482e-08
5.90331e-08
1.20894e-08
5.29768e-08
4.08458e-08
5.40319e-08
5.39439e-08
3.8682e-08
3.75763e-08
3.68519e-08
3.71231e-08
4.92095e-08
4.85314e-08
8.3532e-09
3.77841e-08
1.14385e-08
3.99765e-08
1.76053e-08
4.97569e-08
8.27644e-09
3.91876e-08
1.32409e-08
4.80218e-08
6.27347e-08
4.37082e-08
4.49366e-08
4.41374e-08
1.83847e-08
5.95208e-08
1.58046e-08
4.40227e-08
4.30817e-08
2.44761e-08
4.12802e-08
4.76096e-08
5.96499e-08
8.5014e-09
5.35964e-08
5.33988e-08
5.35195e-08
1.74648e-08
2.57271e-08
5.33677e-08
3.40034e-08
2.99351e-08
6.01805e-08
1.6586e-08
3.11219e-08
2.89705e-08
3.28761e-08
2.39441e-08
2.40257e-08
3.49165e-08
2.39488e-08
2.43173e-08
3.45925e-08
2.28182e-08
7.73335e-09
3.28157e-08
4.52074e-08
4.01235e-08
5.56349e-08
1.63757e-08
3.9874e-08
3.8959e-08
4.00167e-08
8.19674e-09
2.9821e-08
2.7288e-08
4.01016e-08
1.62789e-08
3.97318e-08
2.37903e-08
5.47911e-08
4.94054e-08
3.57449e-08
8.03163e-09
3.05551e-08
6.02516e-08
2.63099e-08
1.97417e-09
4.24982e-08
2.65378e-08
5.49515e-09
3.4891e-08
3.10792e-08
2.211e-08
2.13775e-08
2.15859e-08
2.1513e-09
4.35668e-08
3.96399e-08
2.16833e-08
6.12718e-08
2.15888e-08
2.23592e-08
4.34569e-08
3.55846e-08
3.70838e-08
3.87806e-08
3.90343e-08
3.72232e-08
3.70311e-08
1.79405e-08
5.80254e-08
4.35712e-08
3.61543e-08
2.42111e-08
3.71169e-09
5.92056e-08
3.65584e-08
1.28e-08
3.90662e-08
3.53175e-08
5.90956e-08
3.83982e-08
4.34854e-08
2.68578e-08
2.55656e-08
2.63099e-08
2.67759e-08
4.52794e-08
8.89806e-09
1.31208e-08
5.79204e-08
5.75291e-08
5.76329e-08
1.6203e-08
8.6724e-09
2.12618e-08
1.64299e-08
5.78392e-08
8.14631e-09
7.84895e-09
5.22388e-08
2.72149e-08
1.26542e-08
5.43256e-08
2.81634e-08
2.72897e-08
2.60562e-08
3.1266e-08
1.15826e-08
3.12826e-08
5.7719e-08
2.81485e-09
4.54201e-08
3.96387e-09
5.12099e-08
4.82746e-08
2.33056e-09
4.40353e-08
4.4011e-08
1.66915e-08
2.18758e-08
5.81313e-08
2.2179e-08
5.42152e-08
1.81879e-08
4.88633e-08
2.09271e-09
2.51507e-10
1.28832e-08
4.52582e-09
8.43339e-09
6.70868e-11
3.7735e-08
3.14055e-08
2.86417e-10
2.99391e-08
3.05325e-08
5.20784e-09
1.61517e-08
3.71472e-08
3.59031e-08
2.6652e-08
2.50015e-08
4.85874e-08
3.70438e-08
2.61481e-08
2.24272e-08
3.8042e-08
2.57607e-08
2.76847e-08
3.80719e-08
9.6163e-09
8.44446e-09
7.58879e-09
5.65659e-09
8.58038e-09
4.32557e-08
9.67438e-09
1.16507e-08
2.17224e-08
2.44931e-08
1.1249e-08
2.48311e-08
1.13332e-08
1.21098e-08
4.2509e-09
4.46675e-09
4.35617e-08
4.50369e-08
5.57038e-08
1.64706e-08
1.28579e-08
2.87854e-08
4.82725e-08
5.86803e-09
3.10522e-08
3.74471e-08
2.71567e-08
1.35777e-08
2.17934e-09
1.41004e-08
5.97658e-08
1.0478e-09
9.53581e-09
9.77802e-09
4.59831e-09
5.0053e-08
4.45899e-08
4.29484e-08
1.20582e-08
6.00206e-08
1.07893e-08
3.11663e-08
3.63521e-08
5.26027e-09
9.89794e-09
4.93665e-08
4.52006e-09
3.50905e-08
4.41351e-09
2.34733e-09
6.06662e-09
3.56949e-08
3.9773e-08
5.79365e-08
4.58469e-08
3.43746e-08
4.00508e-08
3.99827e-08
4.14258e-08
4.08672e-08
1.47688e-08
4.65713e-08
4.67506e-08
8.55869e-09
2.74462e-08
4.77795e-08
6.16341e-08
1.58394e-08
5.14021e-08
5.92922e-08
3.18793e-08
3.10796e-08
6.04944e-08
1.07426e-08
4.65038e-08
2.07564e-09
3.9696e-08
1.59821e-08
5.70483e-08
3.92331e-08
5.04938e-08
3.07437e-08
4.82498e-08
1.02614e-08
3.94283e-08
3.08788e-08
3.92262e-08
3.65155e-08
1.07029e-08
2.30965e-08
1.01219e-08
3.9861e-08
3.97076e-08
5.06184e-08
1.80803e-08
4.03819e-08
3.89798e-08
1.59168e-08
3.12273e-08
3.05539e-08
4.35456e-08
8.36126e-09
3.11264e-08
5.49052e-09
2.21949e-08
5.177e-08
2.92006e-09
4.45113e-08
2.82725e-08
3.05857e-09
3.07692e-08
5.60478e-08
2.77196e-08
5.10955e-08
3.05701e-08
8.51798e-09
1.95921e-08
1.55847e-08
2.23405e-08
1.78487e-08
6.04622e-08
1.6941e-08
4.4628e-08
1.82113e-08
4.47067e-08
2.26393e-08
1.81462e-08
1.82345e-08
1.40496e-08
4.51808e-08
2.90283e-08
8.55226e-09
1.23387e-08
1.78426e-08
1.69633e-08
3.91352e-08
4.45771e-08
3.08315e-08
3.26402e-09
1.55512e-08
4.39524e-08
1.01583e-08
5.02872e-09
2.3781e-08
2.47512e-08
5.81325e-08
4.39296e-08
1.61133e-08
4.45805e-08
4.01756e-09
4.42489e-08
1.0577e-08
3.08411e-09
5.2918e-08
5.20012e-08
3.1609e-09
5.31822e-08
5.27435e-08
2.47989e-08
4.28924e-08
3.30298e-08
2.60671e-08
2.52411e-08
2.6083e-08
3.88105e-08
3.95541e-08
7.45825e-09
3.91019e-08
5.95799e-08
5.98263e-08
4.38812e-08
7.98862e-09
1.03986e-08
1.06597e-08
3.34437e-08
4.26356e-08
1.07905e-08
8.57854e-09
2.70765e-09
8.03846e-09
1.08171e-08
7.82478e-09
5.64197e-08
4.94401e-08
5.56499e-08
2.22747e-08
4.75268e-08
3.46703e-08
3.41657e-08
4.8324e-08
2.04835e-08
4.15202e-09
8.70301e-09
7.24361e-09
1.75286e-08
5.61238e-08
3.57911e-08
6.41849e-09
3.63267e-08
4.27539e-08
4.9507e-08
1.02587e-08
3.85466e-08
3.02116e-09
5.88113e-08
3.64322e-08
3.60871e-08
4.13451e-08
1.8234e-08
5.17185e-08
5.03714e-08
4.12921e-08
6.22263e-08
4.71891e-08
3.97476e-08
4.14223e-08
4.15438e-08
4.17724e-08
4.93968e-08
4.54116e-08
4.59313e-08
2.47891e-08
2.80295e-08
5.47653e-08
4.26524e-08
4.19387e-08
6.22359e-08
4.20388e-08
4.31677e-09
6.26136e-08
3.63333e-08
2.14306e-08
9.79914e-09
2.11943e-08
6.19192e-08
2.18086e-08
7.13289e-09
5.63909e-09
3.23926e-08
6.06955e-09
2.9813e-08
5.43326e-08
6.83041e-09
7.84897e-09
6.03258e-09
2.72e-08
4.69814e-09
5.37715e-09
6.04403e-09
6.10936e-08
6.17942e-08
2.78199e-08
5.45087e-08
6.15586e-08
6.17244e-08
2.34296e-08
5.53876e-08
5.5456e-08
2.29951e-08
2.35879e-08
5.79886e-08
2.38696e-08
5.55981e-08
5.74526e-08
5.55154e-08
5.45067e-08
5.59934e-08
3.60377e-08
5.99109e-08
5.80324e-08
4.84782e-08
4.71284e-08
4.34582e-09
5.74557e-09
5.28232e-08
1.78507e-08
5.46956e-08
4.43304e-08
4.71734e-08
4.63738e-09
1.54082e-08
1.56652e-08
1.51998e-08
1.54965e-08
1.42127e-08
6.01507e-08
5.85131e-08
1.47273e-08
4.34652e-08
5.46773e-08
9.6758e-09
1.60262e-08
1.02184e-08
4.37702e-08
4.80911e-09
4.35382e-08
4.80879e-08
6.00133e-09
1.56238e-08
3.05671e-08
3.70893e-08
5.94556e-09
4.84153e-09
1.30223e-08
3.74937e-08
3.97721e-08
7.19357e-09
8.27606e-09
7.53745e-09
2.46523e-08
6.98616e-09
1.87995e-09
1.95587e-08
2.49112e-08
3.74835e-09
1.10128e-08
2.33348e-09
1.93116e-08
3.30921e-08
2.92814e-08
2.041e-08
1.74926e-08
1.48952e-08
5.03387e-08
1.95596e-08
2.65251e-08
2.13115e-08
5.07114e-08
1.47564e-08
2.07595e-08
5.07684e-08
1.94524e-08
3.59261e-08
2.13002e-08
2.11662e-08
1.91864e-08
5.09395e-08
9.11413e-09
2.76828e-08
4.15872e-08
1.84103e-08
1.90558e-08
3.95288e-08
1.65633e-08
1.98941e-08
1.9346e-08
1.75063e-08
5.0896e-08
3.59982e-08
3.11797e-08
2.52664e-08
5.82705e-08
1.93058e-08
3.26679e-08
8.06744e-09
4.37812e-08
8.08125e-09
1.02462e-08
1.06073e-08
3.60699e-08
3.36608e-08
3.2673e-08
2.19282e-08
2.20465e-08
2.19769e-08
2.18863e-08
3.43877e-08
3.65862e-08
3.60821e-08
5.61729e-08
5.61118e-08
5.20361e-08
4.13558e-08
5.58397e-08
5.27663e-08
5.45339e-08
1.24713e-08
3.65032e-08
3.80724e-09
2.76675e-08
2.76433e-08
4.0105e-08
2.42065e-08
2.7673e-08
2.87143e-08
2.79347e-08
4.7836e-08
2.82632e-08
4.52494e-09
2.27309e-08
2.41037e-08
2.00317e-08
2.24915e-08
9.2694e-09
4.42403e-09
5.64339e-09
7.55085e-09
1.67205e-09
5.86535e-08
1.70422e-09
4.75286e-08
2.94559e-09
5.81968e-09
5.95625e-08
5.56474e-08
3.32877e-08
5.67579e-09
1.18777e-08
3.30371e-08
4.25928e-08
1.39069e-08
5.13423e-08
4.67816e-08
4.59733e-08
3.34216e-08
3.34767e-08
3.34958e-08
3.35082e-08
4.08899e-08
4.13671e-08
5.94265e-08
4.05129e-08
4.09871e-08
4.07806e-08
1.40553e-08
4.78414e-08
4.75219e-08
3.92084e-08
4.75999e-08
2.24013e-08
4.72633e-08
4.60311e-08
4.74728e-08
3.34927e-08
1.309e-08
1.40761e-08
4.64207e-08
1.3039e-08
5.9875e-08
2.49469e-08
1.03027e-08
5.82192e-09
5.44116e-08
5.4079e-08
3.8487e-08
4.91815e-08
4.75283e-09
8.81893e-09
5.46325e-08
5.45024e-08
1.01671e-08
5.40214e-08
4.03664e-09
2.64709e-09
5.2261e-09
3.80199e-09
4.86987e-09
6.66062e-09
3.02073e-09
2.06412e-08
2.08497e-10
9.87032e-09
5.88996e-08
3.46649e-09
3.18914e-09
5.61773e-08
6.01347e-08
2.86096e-09
3.55135e-09
4.78251e-08
3.94577e-08
5.12885e-08
5.12662e-08
6.24893e-08
5.50406e-08
1.93996e-08
5.13758e-08
6.08108e-08
1.12888e-08
5.82428e-08
2.2292e-08
2.22959e-08
6.109e-08
9.05037e-09
4.25971e-08
2.22023e-08
5.14066e-08
6.46054e-09
5.92268e-08
4.07551e-08
2.67297e-08
3.86016e-08
2.18766e-08
2.66805e-08
3.05106e-08
4.25182e-08
4.06094e-08
2.64697e-08
5.94118e-08
6.11396e-08
4.50524e-08
2.70725e-08
6.12866e-08
6.14495e-08
6.07178e-08
3.09396e-08
5.36274e-08
6.11081e-08
4.84164e-08
3.17656e-08
4.86144e-08
4.84357e-08
4.89985e-08
3.1146e-08
4.11485e-08
2.4707e-08
2.7581e-08
4.83229e-08
2.98401e-08
4.89413e-08
2.66798e-08
3.43572e-09
5.07073e-08
3.14085e-08
2.62343e-08
1.21307e-08
2.3864e-08
2.48764e-08
2.65719e-08
4.10662e-08
4.92741e-08
4.38565e-08
4.17018e-08
3.7164e-08
3.73443e-08
3.03033e-08
3.74176e-08
6.99823e-09
1.01567e-08
3.76087e-08
2.71165e-08
3.78897e-08
3.76843e-08
5.09247e-08
3.56038e-08
3.73756e-08
3.19341e-08
3.7539e-08
4.98139e-08
3.78145e-09
1.73806e-08
2.60278e-08
5.57392e-08
4.97479e-08
4.93311e-08
3.28753e-09
1.97839e-08
4.19759e-08
8.40783e-09
5.00088e-09
3.09471e-09
1.96446e-08
5.83699e-08
3.54778e-09
5.84253e-08
3.5006e-09
6.12827e-08
6.08994e-08
3.40859e-08
5.79094e-08
2.99355e-08
6.13958e-08
2.58419e-08
2.7475e-08
1.88365e-08
3.72301e-09
1.8601e-08
1.88581e-08
8.15939e-09
4.05949e-09
1.02727e-08
5.54773e-08
5.03162e-08
4.15779e-08
5.64772e-08
1.00049e-08
2.69721e-09
6.05474e-08
3.52582e-09
4.54961e-08
2.43072e-08
6.16519e-08
5.82062e-08
5.63903e-08
5.40492e-08
2.48335e-08
4.6323e-09
4.38248e-09
4.26015e-08
1.95816e-09
1.22032e-08
2.733e-08
1.38765e-08
3.42384e-09
1.26795e-08
4.66657e-08
4.96676e-08
4.79229e-08
1.2624e-08
1.23599e-08
5.67024e-08
1.19722e-08
1.18095e-08
1.45478e-08
5.6789e-08
3.03003e-08
3.58692e-08
1.20204e-08
1.1903e-08
4.66099e-08
4.3889e-08
5.20016e-09
6.16219e-08
3.3022e-08
1.27074e-08
2.74463e-08
5.54331e-09
5.75447e-08
4.09101e-08
5.73485e-08
4.65929e-08
4.31209e-09
4.50434e-08
5.41426e-08
5.29878e-08
3.74065e-08
1.16984e-08
1.16035e-08
3.81998e-08
4.69982e-08
3.24465e-08
3.26123e-08
3.29194e-08
3.56891e-08
9.32403e-09
3.191e-08
4.71228e-08
4.89967e-09
4.78589e-08
3.26114e-08
4.83449e-08
2.37916e-08
3.24491e-08
5.35435e-08
2.48624e-08
4.33539e-08
3.27703e-08
2.36811e-08
9.41175e-09
2.27195e-09
3.0145e-08
2.65769e-08
3.79839e-08
5.0674e-08
3.90157e-08
2.7066e-08
3.24261e-08
3.8834e-08
2.2322e-09
6.13573e-09
2.31904e-09
3.39066e-08
2.17572e-09
1.01177e-08
3.2971e-08
8.3847e-09
2.02093e-09
2.28032e-09
3.43234e-08
3.05055e-08
2.93802e-08
4.92757e-08
4.81381e-08
2.90172e-08
4.48021e-08
3.24351e-08
1.05356e-08
4.10096e-08
4.14812e-08
9.94859e-09
4.6563e-08
3.35152e-08
4.94912e-08
2.06322e-08
2.22617e-09
4.92662e-08
2.93999e-08
2.18831e-08
3.94985e-08
3.89815e-08
2.20864e-09
9.89809e-09
3.90831e-08
3.30317e-08
8.76493e-09
2.56635e-08
2.54779e-08
2.48384e-08
4.9349e-08
3.7022e-09
3.07512e-08
4.60831e-08
4.64037e-08
2.72236e-08
5.55206e-08
3.31916e-08
2.71068e-08
6.15346e-08
2.08829e-08
1.50057e-08
2.06808e-08
2.06847e-08
2.04108e-08
3.87514e-09
4.69133e-08
5.97194e-08
3.54895e-09
5.03639e-08
5.08328e-08
5.5583e-08
5.79559e-08
2.0157e-08
4.79974e-08
1.58532e-08
2.02735e-08
3.46314e-08
2.06558e-08
1.52477e-08
4.50678e-08
4.71307e-08
1.55227e-08
1.88334e-08
4.75632e-08
2.12986e-08
2.2736e-08
1.11978e-08
4.67954e-08
4.64559e-08
4.52665e-08
1.16908e-08
1.05466e-08
2.14555e-08
4.47939e-08
5.52877e-09
4.45904e-09
5.10939e-08
3.74805e-09
2.23342e-08
4.5261e-08
3.32953e-08
6.36769e-09
2.00562e-08
1.93284e-08
3.06153e-08
6.58125e-09
5.81833e-08
5.95521e-08
5.77514e-08
2.34521e-08
2.05349e-08
1.88617e-08
1.32444e-08
1.89926e-08
3.08812e-08
8.37424e-09
5.5637e-08
3.12282e-08
3.09225e-08
5.35928e-08
1.19743e-09
4.58354e-08
1.02652e-08
5.94846e-09
5.33736e-08
2.58392e-08
1.04307e-08
1.78399e-08
4.69073e-08
5.36734e-08
4.68758e-08
5.19031e-08
3.05622e-08
4.57057e-08
4.72025e-08
2.46607e-08
2.90942e-08
3.86662e-08
3.08944e-08
1.11836e-08
1.677e-08
1.3898e-08
4.59027e-08
5.54864e-08
3.21792e-08
3.17335e-08
3.07619e-08
4.24246e-08
4.43393e-08
4.33812e-08
4.13596e-08
4.37784e-08
3.16754e-08
2.46672e-08
1.03516e-08
3.13539e-08
3.83549e-08
2.49971e-08
3.67281e-08
2.3114e-08
2.73298e-08
2.7904e-08
4.51349e-08
3.27193e-08
1.47453e-08
2.44485e-08
2.25145e-08
1.38692e-08
3.21213e-08
2.14096e-08
3.29778e-08
3.83959e-08
1.50457e-08
3.34234e-08
1.58766e-08
5.8583e-08
6.02783e-08
3.76751e-08
3.5258e-08
3.72417e-08
3.80909e-08
3.16694e-08
5.5096e-08
3.60031e-08
3.97588e-08
3.49631e-08
5.41649e-08
5.31403e-08
4.40052e-08
4.21561e-08
3.70506e-08
2.31807e-08
4.02224e-08
1.38956e-09
3.98319e-08
3.97518e-08
3.95024e-08
3.82008e-08
3.59084e-08
3.82808e-08
1.1156e-08
8.50259e-09
3.89669e-08
3.70714e-08
2.94383e-08
2.79707e-08
2.77107e-08
3.72426e-08
3.98094e-08
4.00526e-08
4.83655e-08
4.03114e-08
4.83523e-08
4.00793e-08
4.22231e-08
9.2891e-09
4.21778e-08
1.69697e-08
4.86801e-08
3.60258e-08
1.93206e-08
2.06879e-08
4.88489e-08
1.69604e-08
4.85546e-08
4.84213e-08
9.07973e-09
4.90819e-08
2.42607e-08
3.31975e-08
4.21224e-08
4.91029e-08
6.07351e-08
3.34202e-08
3.97108e-08
4.17606e-08
4.23249e-08
5.52277e-08
6.11907e-08
4.20716e-08
4.8652e-08
5.54162e-08
4.41186e-08
3.73558e-08
2.0019e-08
5.00615e-08
3.98798e-08
4.50831e-08
4.01097e-08
4.69318e-08
5.0693e-08
3.39596e-08
4.26403e-08
1.65021e-08
3.48173e-08
2.1393e-08
1.36314e-08
5.4301e-08
5.61576e-08
4.92926e-08
5.61278e-08
4.32869e-08
2.88385e-08
5.88498e-08
4.21743e-08
3.53075e-08
3.89954e-08
1.63008e-08
2.71578e-08
1.02183e-08
2.51432e-09
1.82258e-08
2.12089e-08
2.8473e-08
1.01601e-08
2.8726e-08
5.61726e-08
2.89687e-08
2.62743e-08
2.74346e-08
2.22404e-08
2.80415e-08
4.22573e-08
2.55126e-08
1.08157e-08
2.07233e-08
1.81938e-08
1.98618e-08
3.98219e-08
5.88193e-08
1.20425e-08
4.70318e-08
3.48759e-10
8.03027e-09
3.48719e-08
1.73851e-08
4.79947e-09
1.90645e-08
2.77432e-08
5.94133e-08
1.19014e-08
9.46351e-10
1.71205e-08
6.26476e-08
6.00218e-08
4.53696e-08
6.02631e-08
1.32268e-08
2.68231e-08
2.65492e-08
5.89835e-08
3.47988e-08
1.52317e-08
5.59964e-08
1.70306e-08
6.0205e-08
5.74209e-11
2.59936e-09
1.54547e-09
3.56228e-08
6.08218e-08
6.14233e-08
6.06425e-08
6.17383e-08
5.60207e-08
6.18184e-08
5.63061e-08
3.63276e-09
5.6029e-08
6.00165e-08
6.09683e-08
5.97224e-08
3.85372e-08
3.65496e-08
5.98148e-08
3.85873e-08
5.98676e-08
5.50619e-08
5.34981e-08
5.06252e-08
2.73373e-08
2.87611e-08
4.8556e-08
4.97525e-08
5.02293e-08
5.00927e-08
5.008e-08
4.98431e-08
1.08392e-08
4.43902e-08
4.37617e-08
4.9616e-08
4.51088e-08
1.70464e-08
5.04217e-08
3.7066e-08
2.69274e-08
4.1042e-08
2.72342e-08
3.44707e-08
4.02337e-08
3.53858e-08
3.61442e-08
4.19216e-08
3.80658e-08
3.28963e-08
4.19904e-08
3.64553e-08
3.14828e-08
3.70143e-08
4.64759e-08
3.8535e-08
3.70902e-08
4.40229e-08
3.72618e-08
4.45505e-08
3.66227e-08
1.55577e-08
1.12095e-08
6.21048e-09
5.50767e-08
4.42126e-08
3.62437e-08
4.48754e-08
1.8391e-09
3.27847e-08
3.63221e-08
2.4801e-08
2.77694e-08
1.51636e-08
2.31882e-08
1.43261e-08
1.72371e-08
2.7922e-08
2.04537e-08
3.6267e-08
1.8608e-08
2.78939e-08
1.71256e-08
2.78324e-08
1.51569e-08
2.75159e-08
5.80625e-08
2.11874e-08
1.23963e-08
3.52927e-08
2.79885e-08
3.35089e-08
3.23462e-08
2.66576e-09
1.12316e-08
1.50202e-08
3.32971e-08
3.35458e-08
3.28715e-08
1.47977e-08
5.43769e-08
2.39237e-09
1.43699e-09
5.28911e-09
2.67827e-09
4.01315e-09
2.07391e-09
5.16182e-09
3.0318e-08
5.98965e-08
2.91526e-08
5.40385e-10
2.91458e-08
6.16065e-08
5.09561e-08
6.15949e-08
5.08769e-08
6.15682e-08
3.15555e-08
2.46696e-09
2.6671e-08
1.87742e-08
2.93377e-08
2.97191e-08
1.86528e-08
1.06904e-10
2.39919e-08
4.28023e-08
5.90628e-08
1.91684e-08
2.35547e-08
4.22779e-08
2.35267e-08
3.61254e-08
3.43984e-08
2.32655e-08
3.56323e-08
5.9618e-08
1.0871e-08
1.46673e-08
8.46384e-09
2.8435e-08
5.91177e-08
2.75997e-08
1.88582e-08
1.82099e-08
1.60079e-08
1.45396e-08
1.35612e-08
1.92025e-08
1.92064e-08
1.97659e-08
6.12975e-08
4.98025e-08
3.75649e-10
1.42445e-08
1.00081e-08
1.47477e-08
1.43686e-08
9.65907e-09
1.57726e-08
9.74427e-09
6.57067e-09
4.21828e-09
3.05241e-09
1.59197e-09
9.5521e-09
5.01852e-09
4.09453e-09
5.33861e-08
1.38932e-09
5.64681e-09
4.81108e-09
4.73544e-09
4.475e-09
5.0703e-08
4.4262e-09
5.04186e-08
1.28172e-09
5.4211e-08
1.95114e-09
4.13826e-08
4.3772e-08
4.19735e-08
4.8199e-08
4.71138e-08
5.87342e-08
2.16359e-09
1.1904e-09
2.7501e-08
2.04152e-08
2.00422e-08
3.8397e-08
3.69555e-09
2.95842e-08
3.40651e-08
3.3486e-08
3.16366e-08
3.97078e-08
2.0202e-08
6.17625e-09
1.36065e-08
5.29265e-09
5.43693e-08
7.03688e-09
2.75785e-08
5.81131e-08
5.48527e-08
2.90532e-08
2.01278e-08
2.76909e-08
2.64208e-08
2.00441e-08
1.71601e-08
3.14725e-08
3.61121e-08
2.38373e-08
3.72469e-08
6.07616e-08
8.34053e-09
1.97949e-08
1.3288e-08
3.95762e-08
4.02824e-08
5.81345e-08
9.60643e-09
4.03978e-08
1.51651e-08
1.53815e-08
6.76016e-09
1.5558e-08
4.02464e-08
1.49543e-08
4.28659e-08
1.46162e-08
6.43646e-09
5.98317e-09
1.63849e-08
5.38071e-08
2.31501e-09
1.53989e-08
5.36925e-08
5.64089e-08
4.97398e-08
4.91924e-08
5.18688e-08
5.39623e-08
2.97635e-08
4.48609e-08
4.96667e-08
4.38791e-08
4.46023e-08
5.02947e-08
4.97868e-08
4.58065e-08
2.0371e-08
5.11462e-08
4.43477e-08
4.46776e-08
4.46938e-08
1.77001e-08
2.6586e-08
4.37603e-08
4.8408e-08
3.98431e-08
4.12214e-08
2.96266e-08
6.91304e-09
5.08564e-08
1.428e-08
3.95971e-08
4.81412e-08
1.53524e-08
3.82652e-08
1.54691e-08
4.90774e-08
3.74483e-10
1.77741e-09
1.54979e-08
1.49394e-09
5.84581e-08
4.84236e-08
3.00857e-08
2.99336e-08
2.01921e-08
6.11817e-08
6.20519e-08
5.01876e-08
4.14443e-08
2.93337e-08
1.98665e-08
5.0548e-08
5.46266e-08
5.5169e-08
4.97827e-08
5.01223e-08
1.98046e-08
4.65448e-08
2.38271e-08
3.83136e-08
4.14956e-08
1.8543e-08
4.06007e-08
5.62575e-08
2.0285e-08
5.72676e-08
5.73567e-08
2.93866e-08
5.74754e-08
2.68629e-08
1.97322e-08
5.29141e-08
5.31299e-08
2.17534e-08
2.93731e-08
1.25644e-08
1.5131e-08
1.69711e-08
1.34738e-08
1.51685e-08
1.29497e-08
2.96791e-08
1.27688e-08
5.45749e-10
2.62326e-08
1.23688e-09
1.04901e-08
1.41804e-08
1.41111e-08
2.40066e-09
2.65359e-08
9.44253e-10
5.46122e-10
2.58078e-09
2.63741e-08
2.66085e-08
2.9416e-08
4.77878e-10
5.85149e-08
6.72961e-09
5.75632e-08
5.06746e-08
5.82575e-08
5.81099e-08
5.44903e-08
5.82181e-08
5.29708e-08
3.42711e-09
5.00106e-08
5.78329e-08
6.18206e-08
3.50186e-10
4.74778e-08
6.01342e-10
5.36619e-08
2.98521e-10
4.98245e-08
4.13926e-08
1.27565e-08
4.81095e-08
5.40955e-08
6.14372e-08
6.80849e-09
6.17626e-08
4.39852e-08
4.27426e-08
3.41073e-08
6.94922e-09
2.0902e-08
4.23092e-08
1.27713e-08
4.06008e-08
3.98258e-08
4.87899e-08
4.7512e-08
6.12986e-08
3.53998e-08
1.08795e-08
6.15329e-08
1.03639e-08
5.94088e-08
5.12245e-08
4.53843e-08
6.07638e-08
4.26362e-08
4.32778e-08
4.40219e-08
2.14649e-08
4.35137e-08
5.05412e-08
5.09256e-08
2.95917e-08
2.06245e-09
2.22792e-08
4.54663e-08
1.21231e-08
2.24563e-08
5.23642e-08
1.82239e-09
2.31506e-08
2.34024e-08
3.74596e-08
4.21765e-08
3.88096e-08
4.22222e-08
6.67801e-09
4.228e-08
3.22175e-08
2.27574e-08
3.77397e-08
7.99774e-09
2.98311e-08
3.27194e-08
3.37853e-08
6.45017e-09
3.23178e-08
2.36819e-08
3.88635e-08
3.84432e-08
1.61659e-09
3.25035e-08
3.31639e-08
3.3877e-08
3.33661e-08
4.7973e-08
1.61882e-08
5.21398e-08
4.99187e-08
1.53107e-08
1.39748e-08
1.45228e-08
3.9483e-08
2.36326e-08
3.45585e-08
3.3614e-08
3.4792e-08
2.97645e-08
2.79876e-08
2.86021e-09
3.49501e-09
2.97784e-08
2.38078e-08
1.12677e-08
5.20896e-08
2.06327e-08
5.95972e-08
6.02102e-08
2.79311e-08
2.69038e-08
2.45841e-08
5.53791e-08
5.51583e-08
5.71263e-08
2.52133e-08
6.1706e-08
5.61995e-08
5.15768e-08
2.74192e-08
2.20257e-08
2.68763e-08
3.40189e-08
5.05555e-08
2.16069e-08
2.26094e-08
4.46939e-08
5.10535e-08
2.97029e-08
2.25559e-08
5.09764e-08
3.37766e-08
5.16102e-08
2.56826e-08
3.5877e-08
3.47409e-08
3.07706e-08
2.74725e-08
2.76964e-08
4.67974e-08
4.68044e-08
2.51669e-08
2.79589e-08
4.56872e-08
3.70427e-08
2.20606e-08
4.40526e-08
2.21176e-08
2.20305e-08
2.59733e-08
3.31441e-08
4.2189e-08
1.68618e-08
3.68604e-09
1.79093e-09
4.23062e-08
2.18004e-09
2.22714e-08
1.06419e-08
1.07624e-08
1.05123e-08
1.09717e-08
4.96765e-09
1.79019e-09
5.04665e-09
5.40174e-08
3.55942e-08
5.46752e-09
2.60823e-08
5.19953e-08
4.6054e-08
5.44661e-08
2.04935e-09
2.84704e-08
2.59538e-08
1.62699e-09
5.66142e-09
1.69993e-08
4.73704e-08
1.71447e-08
4.95381e-08
2.86479e-08
5.95747e-08
1.71553e-08
4.5156e-08
2.87579e-08
5.99682e-09
5.34815e-09
3.5285e-08
4.74558e-08
5.75659e-08
3.48869e-08
4.0241e-08
3.84094e-08
1.92858e-08
2.688e-09
1.70541e-08
2.71156e-09
3.23928e-08
8.05375e-09
1.88355e-09
2.82783e-08
3.25751e-08
3.02426e-08
8.67875e-09
4.17778e-08
2.91612e-08
2.96803e-08
2.77337e-08
3.21612e-08
4.22145e-08
2.4644e-08
2.51558e-08
6.91357e-09
8.00271e-09
1.04358e-08
3.18165e-08
1.34681e-08
9.49209e-09
1.86308e-08
9.72731e-09
5.48978e-09
9.01585e-09
5.28245e-09
5.16322e-09
5.34605e-09
1.02969e-08
3.21156e-08
4.22099e-08
8.39239e-09
6.81246e-09
3.41387e-08
5.91563e-08
5.82472e-08
5.90781e-08
5.29867e-08
5.94571e-08
1.34918e-08
5.15292e-08
9.54299e-09
3.4689e-08
3.24502e-08
4.24319e-08
5.014e-08
5.20577e-08
3.0116e-08
5.06545e-08
3.89446e-08
4.20006e-08
1.68676e-08
3.86592e-08
4.13069e-08
1.7449e-08
5.24906e-08
1.38606e-08
3.73592e-08
1.13595e-08
3.5617e-08
3.81882e-08
3.49133e-08
3.80084e-08
4.41339e-08
1.67293e-08
1.83846e-08
1.75891e-08
1.81683e-08
3.48395e-08
5.92427e-08
1.75092e-08
4.65894e-08
2.24943e-09
2.39447e-08
2.28829e-08
4.2159e-08
1.70853e-08
1.67643e-08
4.37988e-08
1.81587e-08
2.57232e-08
4.80796e-08
1.55734e-08
1.63151e-08
5.91148e-08
4.52657e-09
5.19968e-09
1.27198e-08
4.49129e-08
4.41118e-08
5.69337e-08
4.9621e-08
4.99307e-08
5.29898e-09
4.42936e-08
3.55277e-08
4.97715e-08
5.34293e-08
3.52097e-08
5.34904e-08
6.03229e-08
6.00813e-08
5.3662e-08
5.36113e-08
5.07365e-08
6.79173e-09
5.75218e-08
1.29265e-08
1.82248e-08
5.33395e-08
5.14193e-08
1.38477e-08
1.32743e-08
1.30039e-08
4.24404e-08
2.11775e-08
5.31735e-08
2.09083e-08
5.54214e-08
1.31223e-08
5.45848e-08
5.14335e-08
6.02657e-08
6.10656e-08
3.08682e-08
5.00536e-08
5.70675e-08
2.2467e-08
4.46164e-08
5.14877e-08
4.39225e-08
4.42393e-08
3.71346e-08
6.07961e-08
1.94692e-08
4.4344e-08
6.01868e-08
2.00132e-08
2.00136e-08
4.43484e-08
2.35999e-08
3.62704e-08
3.4929e-08
2.92356e-08
4.17166e-08
4.06048e-08
4.17439e-08
3.84246e-08
3.75027e-08
4.04766e-08
2.8547e-08
4.81502e-08
3.83671e-08
2.34219e-08
6.11196e-08
6.02683e-09
5.82355e-08
2.99745e-08
1.91737e-08
4.48649e-08
2.79889e-08
6.04012e-08
3.02599e-08
5.8287e-08
5.87602e-08
2.41001e-08
5.90647e-08
2.38528e-08
2.37536e-08
1.81991e-08
1.14089e-08
1.08211e-08
1.24743e-08
2.00703e-08
2.72748e-08
2.77931e-09
2.41001e-09
1.82843e-08
3.08898e-09
2.94831e-09
1.02526e-08
2.49739e-09
5.91787e-08
1.26072e-08
5.53401e-10
5.86564e-08
5.43031e-08
5.73596e-08
5.81453e-08
4.11681e-08
3.99625e-08
1.57576e-09
1.78238e-08
5.44163e-08
3.90051e-08
1.6116e-09
1.71622e-09
1.02192e-08
1.16039e-09
3.68161e-08
3.06912e-08
4.83389e-08
5.5543e-08
4.91099e-08
1.98116e-08
4.87479e-08
5.34251e-08
5.37461e-08
1.95882e-08
5.32792e-08
5.30139e-08
4.05297e-08
3.79983e-08
4.54917e-08
3.8195e-08
4.52052e-08
4.83645e-08
3.45351e-08
4.92559e-08
4.83845e-08
4.78234e-08
9.76254e-09
4.9369e-08
3.05357e-08
5.03346e-08
4.72859e-08
3.21791e-08
4.83249e-08
1.91234e-08
8.72614e-09
9.44833e-09
2.00679e-08
4.81917e-08
5.05916e-08
5.42251e-08
4.32087e-08
5.01494e-08
3.02099e-08
2.3771e-08
2.78003e-08
1.67006e-08
1.29659e-08
4.38185e-08
5.4186e-08
1.65444e-08
2.99073e-08
2.96271e-08
3.91817e-08
1.6652e-08
1.64014e-08
5.44673e-08
5.06642e-08
1.77807e-08
2.96891e-08
2.03077e-08
2.46706e-08
2.42604e-08
2.07663e-08
2.37165e-08
2.06642e-08
2.49677e-08
2.44437e-08
4.19694e-08
3.52157e-08
3.5173e-08
4.21217e-08
5.80146e-08
2.43243e-08
2.65333e-08
3.58599e-08
2.45343e-08
2.40925e-08
2.9663e-08
1.82212e-08
3.39499e-08
3.29678e-08
3.34761e-08
3.37363e-08
3.3515e-08
3.09853e-08
5.89607e-08
1.80183e-08
1.85381e-08
5.48526e-08
1.957e-08
5.63457e-08
1.74497e-08
4.13394e-08
5.67788e-08
1.55597e-09
3.54682e-08
1.90404e-08
4.81839e-08
1.88146e-08
4.87161e-08
5.14582e-08
8.69165e-09
1.00913e-08
1.62438e-08
1.06005e-08
4.07608e-08
2.90848e-08
4.84054e-08
1.32237e-09
1.03475e-08
3.1627e-08
2.18867e-09
3.63582e-08
2.14561e-08
2.09918e-09
2.47317e-08
2.09466e-08
2.68989e-08
1.61695e-08
2.61475e-08
2.00748e-08
2.53633e-08
2.16116e-08
3.27439e-08
2.55817e-08
2.11576e-08
1.31623e-08
4.1638e-08
1.60926e-08
1.63238e-08
4.16468e-08
3.53792e-10
8.25101e-10
1.87656e-08
2.32411e-08
1.01284e-08
2.39942e-08
4.15712e-08
6.18399e-08
5.92631e-09
1.23562e-08
1.11363e-08
6.92285e-09
8.10892e-09
6.17296e-08
1.09661e-08
1.23359e-08
8.00173e-09
5.54201e-08
1.26835e-08
7.52941e-09
4.15767e-08
3.22163e-08
5.58271e-08
5.30216e-08
1.98261e-08
6.15275e-08
5.65389e-08
3.22157e-08
2.90404e-08
2.92016e-08
4.95707e-08
2.79245e-08
3.78336e-08
5.13167e-08
4.79133e-08
7.35828e-09
1.65951e-08
8.03623e-09
1.65073e-09
3.7505e-08
8.60394e-09
4.01559e-08
4.17896e-08
4.61761e-08
4.99924e-08
2.7165e-09
2.53695e-09
4.97567e-08
1.83597e-09
4.65719e-08
8.61885e-09
4.98445e-08
9.64928e-09
1.14588e-08
2.3612e-09