/*--------------------------------*- C++ -*----------------------------------*\
| =========                 |                                                 |
| \\      /  F ield         | OpenFOAM: The Open Source CFD Toolbox           |
|  \\    /   O peration     | Version:  v2012                                 |
|   \\  /    A nd           | Website:  www.openfoam.com                      |
|    \\/     M anipulation  |                                                 |
\*---------------------------------------------------------------------------*/
FoamFile
{
    version     2.0;
    format      ascii;
    class       volVectorField;
    location    "0";
    object      U;
}
// * * * * * * * * * * * * * * * * * * * * * * * * * * * * * * * * * * * * * //

dimensions      [0 1 -1 0 0 0 0];


internalField   nonuniform List<vector> 
5687
(
(-2.80553e-06 -3.19156e-06 9.70788e-05)
(-1.32458e-07 5.50121e-07 9.58758e-05)
(5.11334e-07 -1.21173e-07 9.67085e-05)
(-1.4325e-06 4.24058e-06 9.66015e-05)
(6.99999e-07 -8.06917e-07 9.17686e-05)
(-1.13554e-06 1.24527e-06 0.000102021)
(4.77895e-07 -8.56239e-07 0.000122516)
(1.13012e-05 2.66259e-06 9.62316e-05)
(-4.60495e-06 1.94248e-06 0.000100842)
(2.4367e-06 4.23235e-09 9.69897e-05)
(-3.43091e-07 2.04929e-07 9.58849e-05)
(2.52059e-06 7.24725e-07 0.000104799)
(-3.09333e-06 7.6978e-06 8.56959e-05)
(2.51242e-06 4.01728e-07 9.49125e-05)
(-2.68407e-06 -6.63478e-06 0.000101904)
(5.02819e-06 1.30019e-06 8.09262e-05)
(1.77191e-05 -2.42819e-05 8.77788e-05)
(7.70408e-07 -9.32575e-06 0.000103374)
(3.18833e-07 1.44936e-06 8.79071e-05)
(5.7252e-06 -2.06744e-05 9.57808e-05)
(1.10622e-06 4.00254e-07 9.8678e-05)
(-5.72087e-06 -1.07185e-05 8.71654e-05)
(-3.91332e-07 4.93923e-08 9.96269e-05)
(1.18257e-06 6.45502e-07 9.6734e-05)
(-3.09606e-06 1.77853e-05 9.19363e-05)
(1.24336e-06 4.61612e-07 9.54524e-05)
(1.85411e-06 9.69486e-07 9.84459e-05)
(-4.55876e-06 -9.95701e-06 9.75098e-05)
(3.60522e-08 -4.14455e-07 0.000108421)
(3.00878e-06 1.61831e-05 9.09068e-05)
(-3.49229e-07 8.45736e-07 0.000100132)
(5.93963e-06 -1.13086e-05 9.46033e-05)
(9.65571e-06 -4.7216e-07 9.69946e-05)
(4.55918e-06 -4.91939e-06 0.000105705)
(1.85927e-06 -1.53559e-06 0.000102235)
(9.22875e-07 9.19977e-07 9.76262e-05)
(-1.15688e-06 4.63878e-06 9.09465e-05)
(1.42055e-06 1.74517e-05 8.96904e-05)
(-8.60888e-06 -1.45036e-06 9.45773e-05)
(-1.47322e-06 -2.31525e-07 0.000103847)
(8.77706e-08 2.71559e-06 0.000100313)
(2.60715e-06 4.93082e-06 8.48425e-05)
(-1.40392e-06 4.29505e-07 9.59112e-05)
(3.53452e-07 1.26162e-06 9.4378e-05)
(6.05706e-07 3.13075e-06 9.53118e-05)
(6.46267e-06 -4.42825e-06 0.000104669)
(-5.18203e-06 -3.17628e-07 9.75539e-05)
(8.61778e-06 1.76917e-05 9.81375e-05)
(4.5706e-06 5.62004e-07 8.64973e-05)
(-5.49172e-07 -7.0087e-07 0.000102131)
(-1.785e-06 -8.04478e-06 0.000106935)
(4.14666e-06 -5.03522e-06 9.51202e-05)
(-1.42663e-05 -7.18544e-06 0.000104081)
(7.69262e-06 -2.14989e-06 9.31414e-05)
(-6.38013e-06 4.99343e-06 0.000101425)
(-8.18016e-08 1.96982e-05 0.000100231)
(1.12525e-05 1.14237e-05 0.000112185)
(6.71978e-06 -1.17892e-05 7.82209e-05)
(9.07227e-07 8.4978e-06 0.000106527)
(-2.41927e-05 3.07707e-06 0.000107886)
(-2.81374e-06 3.19773e-06 0.000100858)
(-1.13748e-06 -3.48729e-07 9.89316e-05)
(-8.44096e-06 6.59614e-06 0.000105737)
(2.15767e-07 -1.83166e-06 0.000119938)
(-1.02353e-05 -5.27151e-06 0.00010218)
(6.1816e-06 4.8292e-07 8.85332e-05)
(1.02827e-06 4.59922e-06 8.86479e-05)
(1.27113e-06 1.85394e-06 9.75882e-05)
(7.44073e-06 3.29708e-05 0.000114424)
(-9.71563e-06 2.25009e-05 0.0001)
(-1.58569e-06 5.23799e-06 0.000104033)
(-2.26479e-06 -2.51549e-08 0.000103629)
(-3.06254e-06 -1.35304e-06 0.000101329)
(-2.22938e-06 -4.14302e-06 9.47902e-05)
(-3.13408e-06 -1.60325e-06 0.000105155)
(8.7573e-06 1.18616e-05 9.54382e-05)
(-3.54174e-05 1.30252e-05 8.69084e-05)
(-3.9375e-08 1.1314e-06 9.48534e-05)
(-2.6207e-05 1.6592e-05 0.000109919)
(-1.83579e-05 -1.68517e-05 9.01888e-05)
(-1.31471e-05 -6.78432e-06 0.000114862)
(1.75401e-05 -1.41444e-06 9.46649e-05)
(-1.85229e-07 3.65782e-07 9.18856e-05)
(6.33613e-07 3.4264e-07 9.5322e-05)
(-6.07841e-06 8.40066e-07 0.000101306)
(5.24556e-06 2.59418e-06 9.5154e-05)
(1.50953e-05 -4.01473e-06 7.93657e-05)
(-9.61665e-07 1.46781e-06 9.40796e-05)
(5.3537e-06 1.3435e-05 0.000104631)
(6.76514e-07 8.78098e-08 9.88633e-05)
(-3.76952e-06 -1.24365e-06 9.94905e-05)
(1.29819e-05 -5.85803e-06 9.83588e-05)
(-1.39898e-06 -6.35944e-06 7.90441e-05)
(1.08247e-06 7.267e-07 9.52127e-05)
(-4.07772e-07 2.62884e-07 0.000102908)
(-3.50275e-07 -4.25476e-06 9.37462e-05)
(4.51373e-06 4.46926e-05 0.000104029)
(2.14312e-06 2.15614e-05 0.000107513)
(-5.95066e-06 -7.96862e-06 0.000101508)
(2.36955e-07 9.83421e-07 9.59556e-05)
(7.13492e-06 -3.33108e-06 0.000108099)
(-6.37681e-07 -2.16451e-07 9.50463e-05)
(-1.10136e-06 -1.38505e-05 9.71713e-05)
(-1.35175e-07 6.65061e-06 7.22019e-05)
(-2.55273e-06 5.5058e-06 9.32606e-05)
(1.00028e-05 7.6242e-06 0.000101301)
(3.17373e-06 -1.03965e-06 9.58905e-05)
(-7.08195e-06 4.98824e-06 0.000102328)
(2.26963e-06 1.79968e-05 7.94296e-05)
(-5.19297e-07 -1.41621e-07 9.53033e-05)
(-6.0412e-06 4.21199e-06 0.000105592)
(-1.14135e-05 -1.50012e-05 0.000116301)
(5.82469e-07 7.79535e-07 8.87986e-05)
(8.3189e-06 -3.58752e-07 0.000100462)
(-1.36697e-05 -2.10339e-06 0.000118873)
(-1.55948e-06 4.83722e-06 9.92608e-05)
(-2.85716e-06 2.72643e-06 8.80984e-05)
(9.14391e-06 1.98402e-05 0.00010062)
(-1.4204e-05 1.7238e-05 0.000105446)
(-1.32647e-06 -2.1219e-06 9.13693e-05)
(-1.21639e-06 -4.33094e-07 9.66395e-05)
(6.92171e-06 5.37174e-06 0.000100074)
(2.0861e-06 3.43917e-06 9.96116e-05)
(-1.0047e-06 1.89842e-06 8.74446e-05)
(-2.51564e-06 7.62715e-06 9.65463e-05)
(9.73419e-07 -1.06218e-07 9.92378e-05)
(1.58287e-06 -1.15495e-06 9.56511e-05)
(1.88817e-06 4.64996e-06 0.00010154)
(9.19602e-07 1.712e-06 9.60739e-05)
(3.7692e-06 -4.96783e-06 7.56461e-05)
(3.48353e-07 -6.94817e-07 0.000109943)
(-1.4967e-05 -8.66815e-06 0.000114902)
(-9.61858e-06 2.58684e-05 0.000111232)
(1.30239e-05 -1.66993e-05 0.000108413)
(1.37393e-06 -5.38408e-06 9.05415e-05)
(-5.21082e-06 3.43339e-07 0.000112917)
(1.14083e-06 6.88413e-07 9.46065e-05)
(1.04306e-06 -2.81544e-06 9.97531e-05)
(-6.8701e-06 -8.57461e-06 0.000104475)
(5.80906e-06 2.51943e-05 0.000109783)
(1.47633e-06 1.10112e-06 9.43411e-05)
(-4.96185e-06 5.39036e-06 9.3034e-05)
(-5.81829e-06 3.07767e-06 9.83646e-05)
(-3.6112e-06 -7.25553e-07 9.84781e-05)
(1.65221e-06 2.96985e-06 7.49803e-05)
(4.81973e-06 -8.16835e-06 8.40451e-05)
(3.43738e-06 -5.73538e-06 0.00010692)
(-2.26576e-07 -4.66728e-06 0.000102998)
(-6.22684e-06 -1.11983e-05 8.04114e-05)
(-7.98914e-07 8.32269e-07 0.000100129)
(-3.69009e-06 1.10562e-05 8.33632e-05)
(-3.14183e-06 3.50659e-06 9.94038e-05)
(4.86197e-06 3.56144e-06 9.27858e-05)
(3.94865e-06 9.52988e-06 0.000112471)
(-5.56892e-06 -7.04063e-06 0.00010935)
(1.03773e-05 5.25526e-06 0.000108673)
(-1.31815e-05 -1.96533e-06 0.000101683)
(-1.0515e-05 7.85312e-06 0.000102752)
(-2.85677e-06 4.76755e-06 9.89835e-05)
(-2.94435e-05 -1.36159e-06 0.000129687)
(9.32064e-06 1.12819e-06 9.03673e-05)
(-5.31897e-06 1.83697e-06 0.000108133)
(-1.13545e-06 2.50787e-06 0.000110435)
(-1.76319e-06 9.68546e-06 0.000105102)
(9.38443e-07 9.7301e-06 0.000107252)
(-2.38294e-07 -1.07284e-06 0.000106372)
(2.13967e-05 -9.82415e-06 0.000106396)
(-4.20023e-06 -2.18124e-07 8.99562e-05)
(-3.13682e-07 -5.85891e-06 9.74684e-05)
(2.59462e-06 1.72804e-05 9.17445e-05)
(4.27061e-06 -1.00611e-05 0.000110424)
(-1.70918e-06 9.87381e-07 8.66169e-05)
(1.07073e-06 -3.15772e-07 9.63311e-05)
(-1.23579e-06 -4.44287e-06 0.000103796)
(1.38007e-05 1.9657e-05 0.000107521)
(-5.62795e-06 -7.67476e-06 9.14654e-05)
(-2.05689e-06 -3.64247e-06 0.000108606)
(-1.27947e-06 1.68244e-06 9.93562e-05)
(1.83433e-05 6.13038e-06 8.89972e-05)
(-5.80136e-06 8.84051e-07 6.33336e-05)
(1.32483e-05 -2.45071e-05 7.74968e-05)
(1.02834e-06 1.52459e-05 0.000107398)
(-3.81237e-07 7.7715e-08 0.000106949)
(1.16988e-06 -1.3665e-06 9.83448e-05)
(8.26301e-08 1.75451e-08 9.36863e-05)
(-3.83461e-07 -5.0793e-07 0.000109389)
(2.24392e-06 -2.62068e-07 9.61567e-05)
(-1.10077e-05 3.5278e-07 0.000106954)
(-1.38629e-07 -2.63728e-07 0.00010678)
(-9.61839e-06 -4.69681e-06 0.000120273)
(-1.16525e-06 -3.1868e-06 9.03002e-05)
(-6.85448e-07 8.4668e-06 0.000101726)
(9.39787e-07 -5.76291e-08 9.73767e-05)
(2.73138e-06 -3.79307e-06 9.55879e-05)
(-1.81543e-06 -8.08093e-06 0.000109356)
(-6.6337e-06 -8.04658e-06 0.000110518)
(6.0973e-06 8.78302e-06 7.7861e-05)
(9.01724e-06 6.294e-06 7.97594e-05)
(4.2732e-06 -1.27864e-05 8.18739e-05)
(9.35089e-07 -2.52997e-07 9.65048e-05)
(-4.72818e-06 -1.83644e-05 9.57013e-05)
(-7.3802e-06 1.07288e-05 8.40083e-05)
(4.72094e-06 -4.56197e-06 8.71905e-05)
(-2.54562e-05 7.2746e-06 0.000109287)
(-2.09889e-05 1.31721e-05 0.000102462)
(-2.38028e-05 1.08537e-05 0.000109444)
(2.48604e-06 -9.37259e-07 0.000117334)
(1.47991e-06 6.69366e-06 8.48826e-05)
(-2.55727e-05 1.69079e-05 9.88791e-05)
(2.85748e-06 5.72815e-06 9.29834e-05)
(-4.20137e-07 -9.40743e-07 9.67331e-05)
(-1.77858e-06 1.06658e-05 8.0354e-05)
(2.46769e-06 -5.05361e-06 0.000107963)
(7.16498e-06 5.46459e-06 0.000110369)
(3.90537e-06 9.41734e-07 0.000112424)
(5.09385e-06 1.06453e-05 9.83081e-05)
(-5.47698e-06 -3.28857e-06 0.000103171)
(1.97277e-06 -3.53204e-06 8.13e-05)
(-1.10232e-06 2.84259e-07 8.91191e-05)
(1.79521e-06 1.18308e-06 9.6679e-05)
(1.78767e-05 2.26708e-05 0.000108478)
(-1.52749e-05 1.78037e-05 0.000109035)
(1.17012e-07 5.39716e-07 8.82457e-05)
(1.86552e-05 3.44052e-06 9.8129e-05)
(3.52209e-06 -2.18891e-05 9.62706e-05)
(-8.77162e-07 -5.76026e-06 0.0001043)
(1.39061e-06 -1.00493e-06 0.000100974)
(-5.31322e-06 7.51678e-06 0.000101302)
(-4.72905e-06 1.25765e-05 0.000107169)
(-6.83678e-07 -2.20967e-06 0.000107915)
(-7.33581e-06 5.8376e-06 0.000110174)
(1.38888e-05 6.17243e-06 8.37121e-05)
(-3.39602e-07 -6.1706e-07 0.00010022)
(9.67609e-06 2.71308e-06 0.000109962)
(1.41108e-05 -6.23908e-06 9.33083e-05)
(1.48171e-05 -1.05528e-05 0.0001237)
(-1.17897e-05 -1.09308e-05 9.39397e-05)
(-7.92714e-06 5.747e-06 0.000113265)
(-5.69562e-06 -7.49166e-06 9.92074e-05)
(-2.82472e-06 2.29041e-07 0.000107168)
(-7.85035e-07 4.3936e-05 8.11754e-05)
(-2.59814e-06 -1.75062e-06 8.61037e-05)
(6.65449e-06 -3.38561e-06 0.000129287)
(5.81448e-06 -2.00334e-05 0.000115566)
(9.85134e-07 -5.47002e-07 9.00037e-05)
(1.02238e-05 -9.99248e-06 0.000112488)
(3.23477e-06 1.28903e-06 9.63015e-05)
(7.83634e-07 -3.06993e-06 9.98621e-05)
(-1.22588e-05 3.88395e-07 7.5893e-05)
(-2.00218e-06 -9.42033e-06 9.85103e-05)
(5.6197e-06 -1.26973e-05 9.85043e-05)
(-1.88472e-05 -1.45152e-06 9.85204e-05)
(2.72756e-07 1.23219e-06 9.32806e-05)
(-3.7462e-07 -6.70153e-07 9.55733e-05)
(1.3492e-05 -9.45661e-06 9.03413e-05)
(9.18956e-06 -4.36108e-06 0.000113075)
(2.3491e-05 6.05123e-06 9.77595e-05)
(5.15139e-08 3.43329e-07 0.000101781)
(8.47176e-07 7.66438e-09 9.63924e-05)
(1.93244e-07 2.98302e-06 0.000104207)
(-1.36895e-06 -6.35871e-06 9.56068e-05)
(-1.19026e-05 -9.42162e-06 0.000117998)
(1.10024e-06 -2.70401e-07 9.60331e-05)
(9.00609e-07 -6.47522e-07 9.62999e-05)
(-3.51306e-07 -2.3413e-06 7.90775e-05)
(1.549e-06 -7.21761e-08 9.54692e-05)
(-2.19401e-06 1.97645e-06 0.000112064)
(4.39998e-06 3.44848e-06 8.02459e-05)
(8.37109e-07 -6.88054e-07 9.53545e-05)
(3.60898e-06 -3.82189e-06 0.000100253)
(1.04417e-06 1.05798e-06 9.62612e-05)
(-3.47293e-06 1.85382e-06 9.83117e-05)
(2.22118e-06 1.3193e-05 0.000118383)
(-1.5049e-07 2.1051e-07 8.96327e-05)
(-6.0784e-06 1.0307e-05 8.69162e-05)
(4.72366e-06 9.94939e-06 0.000116742)
(1.5627e-06 1.4615e-06 9.78517e-05)
(7.71366e-07 1.87958e-06 9.50433e-05)
(4.96682e-06 8.40851e-07 9.84645e-05)
(2.10987e-06 5.8694e-06 8.62877e-05)
(-1.08749e-07 -1.05596e-06 9.93585e-05)
(-8.6324e-06 3.24205e-05 0.000111488)
(4.01325e-07 1.75762e-05 0.0001002)
(5.23226e-06 -4.73769e-07 9.483e-05)
(1.22491e-05 -1.36855e-05 0.000105835)
(-7.07914e-07 7.00815e-07 9.7661e-05)
(1.94331e-06 4.35931e-07 9.56438e-05)
(2.77178e-05 5.60718e-07 0.000107305)
(1.64346e-06 7.55395e-07 9.66623e-05)
(3.7166e-06 1.73519e-05 9.96077e-05)
(-1.5939e-05 1.09488e-05 7.64703e-05)
(-9.87378e-07 7.42804e-07 8.96663e-05)
(2.29822e-07 1.47479e-06 0.00010096)
(2.8953e-05 -8.20492e-07 8.11542e-05)
(-1.4218e-05 2.77442e-07 9.92498e-05)
(-1.84429e-06 7.13494e-06 9.54612e-05)
(-1.18465e-05 7.73191e-06 0.000120193)
(4.86695e-07 1.52123e-06 0.000111551)
(-2.69472e-06 -1.47063e-06 0.000108384)
(4.01365e-06 -5.75657e-06 9.29252e-05)
(2.51094e-05 -1.23882e-05 0.000102834)
(1.18947e-06 -1.72974e-06 0.000116758)
(4.88315e-06 -8.05312e-06 0.000101148)
(4.11412e-06 -7.97884e-07 8.57445e-05)
(9.78269e-06 9.28273e-06 8.86757e-05)
(2.72443e-06 7.71021e-06 0.000105332)
(-3.50665e-06 -1.55135e-05 9.24689e-05)
(6.40329e-07 8.73437e-06 9.30714e-05)
(7.3841e-07 1.10393e-06 9.46132e-05)
(-1.96449e-06 1.35636e-07 9.50493e-05)
(3.7162e-06 -3.45369e-07 0.00010696)
(-2.30226e-07 -7.72066e-07 0.000125965)
(-3.82663e-06 3.78841e-06 0.000107061)
(9.78183e-06 -1.63443e-05 0.000122879)
(4.97946e-06 1.47318e-05 9.46104e-05)
(-4.60333e-07 -1.0417e-07 0.000104057)
(-2.20686e-06 -1.85392e-06 0.000107407)
(1.65676e-07 -5.33997e-06 9.39718e-05)
(3.75144e-06 -5.44333e-06 0.00011363)
(1.71054e-06 1.77416e-06 7.81155e-05)
(-3.73821e-06 4.7127e-06 9.40338e-05)
(-8.74251e-07 -2.62041e-06 0.000114257)
(-4.28888e-06 7.9031e-07 0.0001247)
(1.00287e-06 -5.90565e-07 9.61858e-05)
(-4.24004e-06 1.39942e-06 0.000105742)
(-2.49585e-06 -9.99652e-06 0.000109053)
(-6.85508e-06 2.04523e-06 0.000102601)
(-1.40948e-05 1.02165e-05 0.000105343)
(-4.13801e-06 -5.12452e-06 9.98887e-05)
(7.43423e-07 -6.41978e-07 0.000108765)
(3.20641e-07 1.62196e-06 9.62969e-05)
(2.92262e-06 -1.94021e-05 9.83598e-05)
(-1.04304e-06 4.65336e-07 0.000100791)
(3.20281e-07 -2.33657e-07 9.75107e-05)
(-3.31789e-06 -2.59445e-06 0.000104774)
(-4.40427e-07 4.75109e-06 8.80611e-05)
(-8.33686e-07 1.17768e-05 0.000106828)
(7.19823e-06 -9.20772e-07 0.000100386)
(-2.29021e-06 -8.61723e-06 0.000104009)
(1.36534e-06 6.15732e-06 9.93728e-05)
(-2.23674e-06 -1.01516e-05 7.68611e-05)
(2.34379e-06 -8.80496e-06 0.000114788)
(-1.32515e-05 1.21245e-05 0.000114096)
(3.60053e-06 -4.71657e-07 0.000106104)
(2.64666e-06 6.72867e-06 0.0001)
(-1.07815e-07 -1.61019e-06 9.56436e-05)
(1.0404e-05 1.38322e-05 9.8914e-05)
(2.19077e-06 -3.95214e-06 0.000101309)
(6.58062e-06 2.63214e-06 7.67655e-05)
(-3.92902e-07 -2.6024e-06 0.000111391)
(-4.00348e-07 3.34973e-06 9.42288e-05)
(-9.91786e-06 1.42933e-05 0.000120286)
(1.05166e-05 6.15739e-06 9.02e-05)
(3.23631e-06 2.84613e-07 9.76705e-05)
(9.2533e-07 6.24159e-07 9.89188e-05)
(-5.31833e-07 1.7785e-06 9.5343e-05)
(4.94766e-06 -6.36737e-06 9.52492e-05)
(-8.37584e-06 -6.71193e-06 0.000105133)
(-4.30746e-06 -2.00581e-06 0.000107039)
(1.83113e-06 -1.03543e-06 0.000103627)
(7.53484e-07 7.56919e-07 9.75697e-05)
(9.60306e-06 1.31575e-06 9.38954e-05)
(7.39007e-07 -7.68796e-06 8.62711e-05)
(1.36988e-06 3.20815e-07 8.41838e-05)
(1.17506e-05 -1.0858e-05 0.000101807)
(-5.1894e-07 -7.07709e-08 0.000102417)
(1.15269e-05 -6.46196e-07 8.67494e-05)
(1.32403e-06 -1.71878e-06 0.000113715)
(-8.31064e-06 3.16637e-06 0.000106955)
(-6.33282e-06 4.32838e-06 7.1249e-05)
(7.34967e-07 3.92894e-07 0.000100342)
(-1.11949e-06 -5.17197e-06 9.46755e-05)
(-8.92921e-06 2.83351e-06 9.32585e-05)
(-1.82047e-06 6.49511e-06 9.63837e-05)
(-1.00268e-05 -1.86786e-06 8.19629e-05)
(1.08421e-06 -4.66996e-07 0.000108361)
(2.30265e-05 3.57653e-06 0.000106025)
(3.91236e-07 1.11886e-06 9.70598e-05)
(-1.00995e-07 -3.55962e-07 0.000105285)
(2.23774e-06 -8.69272e-06 7.38254e-05)
(1.01897e-05 2.52463e-05 9.49999e-05)
(-7.03191e-06 -8.01177e-06 0.000102213)
(1.3275e-05 2.16117e-05 0.000122425)
(9.1215e-06 -2.84451e-06 9.80789e-05)
(2.89345e-06 3.83362e-06 9.82732e-05)
(4.30369e-05 -2.61035e-06 0.000112086)
(-1.20202e-05 4.91657e-07 0.000124478)
(-1.16806e-05 3.64114e-05 9.12448e-05)
(1.38759e-06 -1.55745e-08 0.000115014)
(8.15747e-06 -2.84417e-06 9.84116e-05)
(-1.48251e-07 -5.39419e-07 9.95193e-05)
(-8.91912e-07 -4.68009e-06 9.41935e-05)
(8.55263e-06 4.45648e-06 0.00011177)
(6.92519e-07 -4.73222e-07 9.70256e-05)
(1.84108e-06 1.14971e-06 9.63413e-05)
(9.82972e-07 -9.44181e-06 0.0001)
(8.07212e-07 -2.60917e-06 0.000112844)
(3.73241e-06 1.02477e-05 8.56063e-05)
(-1.20465e-05 1.28902e-05 0.000113859)
(5.4915e-06 -1.58675e-06 0.00010193)
(1.34607e-06 9.03358e-06 0.000117082)
(2.0347e-05 -7.85047e-06 0.000107404)
(-1.4573e-05 4.99723e-06 0.00010022)
(-1.73592e-06 -1.60019e-06 9.00414e-05)
(-3.03069e-07 4.123e-07 9.79159e-05)
(3.03992e-06 -1.21839e-05 0.000106727)
(-6.07552e-06 -8.30695e-06 9.99956e-05)
(-6.07994e-06 -2.94243e-06 0.000109566)
(3.28321e-06 -7.57946e-06 0.00010985)
(-7.22434e-08 -1.30309e-07 9.79367e-05)
(2.41519e-06 -1.2113e-06 9.92212e-05)
(1.03744e-06 4.75925e-07 9.73872e-05)
(5.04737e-07 9.33583e-06 0.000104972)
(-6.24734e-06 3.51391e-07 0.000104886)
(2.34882e-06 1.20938e-06 9.67159e-05)
(-1.38322e-06 -2.50003e-05 8.76187e-05)
(2.51899e-06 -1.73363e-06 9.73363e-05)
(-8.68981e-06 2.17667e-05 8.64218e-05)
(-3.49981e-06 -1.85725e-06 9.47268e-05)
(-6.61273e-06 -1.19262e-06 0.000105509)
(6.70788e-07 -5.73706e-07 9.09981e-05)
(-1.21139e-06 -3.12175e-08 9.0204e-05)
(3.88567e-06 -1.87341e-06 9.54114e-05)
(4.07374e-07 -5.90476e-06 9.35433e-05)
(6.11916e-07 1.65661e-06 9.6037e-05)
(-4.53036e-06 -4.87527e-07 0.000100884)
(1.89405e-05 -2.30444e-06 9.98977e-05)
(6.90208e-07 -4.29974e-07 0.000100261)
(8.58352e-07 1.33096e-06 9.85747e-05)
(-1.96552e-06 -2.8645e-06 0.000104456)
(6.57649e-07 -4.73433e-07 9.87391e-05)
(3.14616e-06 -6.91138e-06 0.00011161)
(1.04432e-05 6.26219e-06 9.35448e-05)
(4.84605e-07 1.53469e-07 9.36583e-05)
(6.05704e-08 -2.41517e-07 9.21924e-05)
(-3.92634e-06 9.95991e-07 0.00011669)
(4.12683e-07 -1.04568e-05 0.000110687)
(-3.91005e-06 7.17919e-06 9.32501e-05)
(1.64944e-06 -3.8574e-06 9.54028e-05)
(2.7796e-07 1.69529e-07 9.5718e-05)
(-4.89142e-06 -2.28657e-06 0.000112289)
(-9.63471e-07 -1.2843e-05 6.9798e-05)
(4.40675e-07 1.20574e-06 9.40679e-05)
(5.63594e-07 -2.09984e-07 0.000117158)
(-6.15385e-07 -2.26267e-05 0.000101544)
(-1.04414e-05 -1.91225e-07 0.000107552)
(1.30431e-07 6.67104e-07 9.74948e-05)
(3.23994e-05 -1.49418e-05 0.000108003)
(2.94488e-06 -1.79268e-06 0.000116262)
(4.13894e-07 4.0996e-07 9.57557e-05)
(6.61656e-06 -3.79114e-06 0.000103533)
(-1.49736e-06 -6.83802e-06 0.000105048)
(1.18497e-06 8.16523e-06 0.000110211)
(-2.32624e-06 5.8124e-07 9.73411e-05)
(1.60838e-06 -6.85938e-06 9.5477e-05)
(1.7641e-05 -3.16011e-06 0.000113197)
(6.55977e-07 4.161e-06 9.54077e-05)
(-8.86375e-07 5.98063e-06 9.24916e-05)
(-7.09793e-06 -3.14508e-06 0.000113333)
(-1.58327e-05 7.41288e-06 9.61382e-05)
(1.14109e-06 -4.34664e-06 9.35019e-05)
(3.83457e-06 -1.66415e-06 0.000113322)
(-6.02359e-07 -1.89932e-07 9.39857e-05)
(1.6656e-06 1.21907e-05 8.64787e-05)
(-2.04e-06 -2.96732e-06 0.000117038)
(-1.42048e-06 1.11909e-05 9.87378e-05)
(1.25166e-05 -8.78259e-06 9.83903e-05)
(-3.08692e-06 4.37137e-06 0.000105915)
(1.95046e-05 1.26676e-05 0.000106336)
(-9.49061e-07 -3.3795e-07 0.000103375)
(1.49086e-05 -3.79785e-06 7.22625e-05)
(1.55592e-06 4.86536e-06 9.56541e-05)
(-1.05538e-05 -4.31874e-06 8.21773e-05)
(2.71736e-05 6.441e-06 9.03134e-05)
(4.23036e-07 -2.35689e-07 0.000117534)
(-1.33497e-06 5.36185e-06 9.59998e-05)
(6.04159e-06 5.57921e-06 0.000100492)
(-3.96891e-07 -1.14355e-06 9.65833e-05)
(1.50458e-05 -4.33648e-06 0.000100438)
(-2.22442e-07 1.4267e-06 9.69354e-05)
(-3.46778e-07 3.73887e-06 7.2535e-05)
(-2.34183e-05 -1.27306e-05 0.000119006)
(1.53145e-05 8.9172e-06 0.00011107)
(-3.94024e-08 1.68205e-06 9.78157e-05)
(6.26729e-06 -5.20906e-07 7.56922e-05)
(-5.63873e-06 -7.43751e-06 0.000110183)
(-5.88608e-06 2.71044e-05 8.33477e-05)
(2.55729e-05 5.53419e-06 0.000118691)
(1.97067e-05 -1.25873e-05 0.000104978)
(1.93489e-06 2.90466e-06 9.65807e-05)
(-5.36761e-06 1.33552e-07 0.000110781)
(8.73352e-07 9.77994e-07 9.64178e-05)
(-8.63756e-07 4.06745e-07 9.93156e-05)
(-2.47283e-05 1.72555e-06 8.69922e-05)
(-1.96395e-06 1.93653e-06 9.80255e-05)
(9.70961e-07 -8.68119e-07 9.79919e-05)
(2.38167e-07 1.31175e-06 9.4929e-05)
(-6.72447e-07 -1.22982e-08 0.00010196)
(-6.9093e-06 2.64028e-07 9.99292e-05)
(1.22658e-06 -5.69567e-06 9.5523e-05)
(-6.30466e-06 2.16385e-07 9.17388e-05)
(-1.15214e-06 -5.62518e-06 0.000106136)
(1.17559e-05 2.65355e-06 9.68957e-05)
(-7.30795e-07 9.1372e-07 9.5898e-05)
(-1.34348e-06 1.05892e-05 8.0294e-05)
(7.11733e-06 1.97313e-05 0.000105941)
(2.01194e-06 -1.81924e-06 7.64936e-05)
(7.51719e-06 4.38418e-06 0.000104351)
(-1.8403e-06 2.28791e-06 9.98967e-05)
(-1.01189e-05 -8.16079e-08 0.000101577)
(-3.43201e-06 -6.79217e-07 0.000115417)
(-3.2118e-07 -8.5432e-06 9.64456e-05)
(6.25209e-07 -9.99344e-07 9.66049e-05)
(-2.01933e-07 3.03518e-07 8.95367e-05)
(-9.61197e-06 -1.27403e-05 0.000108573)
(-6.54397e-06 3.08607e-06 0.000112145)
(-2.18667e-06 9.85844e-07 9.68484e-05)
(-3.14265e-06 1.70598e-06 0.0001097)
(8.77498e-07 -9.85494e-06 9.93647e-05)
(9.10181e-06 3.59209e-08 6.84527e-05)
(2.69731e-06 -4.22205e-06 0.000122154)
(-1.76804e-06 -1.03417e-06 9.82875e-05)
(-2.32393e-06 -4.62824e-06 7.82354e-05)
(6.02575e-06 -2.83762e-06 0.000116809)
(-8.51449e-06 -1.61251e-06 0.000110652)
(-1.03708e-06 4.83965e-07 9.1208e-05)
(4.77469e-06 -1.99235e-06 9.71254e-05)
(-6.65678e-07 1.11815e-06 9.21434e-05)
(3.18175e-06 7.63491e-08 9.96238e-05)
(2.08419e-07 -5.93531e-07 9.63077e-05)
(9.96821e-06 1.4181e-06 9.57798e-05)
(6.34902e-06 8.12424e-07 9.88541e-05)
(8.84543e-06 -5.83344e-06 0.000119084)
(2.27923e-05 -1.96596e-05 0.000118767)
(-8.86872e-07 -4.51566e-07 9.6852e-05)
(-3.19644e-05 2.65967e-06 0.000104072)
(5.21358e-07 2.45771e-06 7.09834e-05)
(1.75805e-05 -1.62582e-06 8.72346e-05)
(2.16144e-06 5.02448e-06 0.000110652)
(-9.86554e-06 -3.94295e-08 0.000111474)
(6.18922e-06 2.62023e-06 0.000104334)
(-9.28735e-06 -4.35291e-06 0.000100431)
(1.08716e-06 1.36433e-06 9.35444e-05)
(-3.78475e-07 -2.41831e-06 8.01166e-05)
(3.88108e-06 -3.91421e-06 0.000101722)
(2.87962e-06 5.54303e-06 0.00011059)
(4.70858e-06 -5.50163e-06 0.00010475)
(1.17948e-07 3.62484e-07 9.71913e-05)
(3.27667e-06 -1.46358e-06 0.000101766)
(-1.05805e-06 -3.35505e-06 9.11462e-05)
(-1.00309e-06 -7.69123e-06 0.000113609)
(1.82386e-06 1.32577e-06 0.000100074)
(-1.08525e-05 1.7452e-06 9.87851e-05)
(2.24792e-06 -1.00416e-07 0.00011178)
(-7.36383e-09 -6.17541e-06 9.17491e-05)
(3.4511e-06 -4.40265e-06 0.000104884)
(2.52565e-05 -5.22697e-06 8.34271e-05)
(-3.73352e-07 -1.89411e-05 0.000103789)
(3.77156e-06 -2.86181e-06 8.8836e-05)
(2.25231e-06 -7.45767e-07 9.20832e-05)
(2.17583e-06 8.99702e-06 7.621e-05)
(1.44575e-06 5.05577e-06 9.48257e-05)
(-1.55955e-06 6.37244e-07 9.11149e-05)
(-3.93585e-06 -4.68295e-06 0.000117561)
(9.00814e-06 -1.80161e-05 9.46453e-05)
(2.84883e-06 -1.4131e-06 8.52197e-05)
(-9.60926e-08 7.77389e-09 9.7952e-05)
(9.09837e-06 -2.60395e-05 0.000110689)
(-1.44869e-05 -2.3738e-08 9.82531e-05)
(3.45799e-05 -1.11629e-05 8.95201e-05)
(1.31901e-06 6.60049e-06 0.000119768)
(-1.57965e-05 -4.22215e-06 9.3231e-05)
(1.75612e-05 -1.93703e-05 9.13258e-05)
(-2.68788e-07 3.02441e-07 8.9909e-05)
(2.14781e-06 -8.73241e-06 9.28974e-05)
(1.90114e-06 -2.10512e-05 0.000103512)
(1.00293e-05 5.08917e-07 0.000103138)
(-9.51386e-07 1.33598e-06 0.000100628)
(-6.68922e-06 -1.81321e-06 0.000100436)
(1.82393e-06 -1.57032e-05 9.64399e-05)
(-2.01186e-05 -8.72896e-06 0.000107438)
(1.1467e-05 1.42618e-05 0.000113296)
(-9.99494e-06 8.67212e-06 0.00010119)
(-5.78862e-06 -1.52478e-06 9.27925e-05)
(5.63175e-07 2.33807e-08 9.62684e-05)
(-9.96911e-06 -4.87198e-06 0.000119186)
(8.2121e-07 1.28552e-06 9.48591e-05)
(4.52996e-05 -8.82675e-06 0.000111179)
(-6.0254e-06 -3.15822e-06 9.77845e-05)
(-1.03079e-06 -1.68609e-05 9.7575e-05)
(5.97204e-06 1.9303e-05 0.000102633)
(-1.00768e-07 4.21935e-07 8.5127e-05)
(2.01824e-06 -7.88392e-06 0.00010047)
(1.43392e-05 1.4748e-05 8.81938e-05)
(4.0781e-06 -7.12949e-06 0.000101845)
(-2.04198e-05 -6.58844e-06 9.9099e-05)
(1.05422e-06 -3.97232e-06 9.46383e-05)
(-8.78528e-06 9.88905e-06 9.94666e-05)
(-9.67341e-06 4.84715e-06 9.56289e-05)
(-2.01541e-06 4.82942e-06 0.000102574)
(3.34514e-06 -2.80986e-07 7.79661e-05)
(-1.79942e-06 -2.54549e-06 8.23646e-05)
(1.65021e-06 -6.48493e-06 8.99923e-05)
(-1.55769e-05 -1.66504e-06 0.000130207)
(1.41143e-07 3.14191e-07 9.50446e-05)
(-3.68324e-07 8.97432e-06 8.48326e-05)
(-1.93266e-05 1.46991e-05 0.000111435)
(-1.00741e-05 -1.02554e-05 0.000104502)
(1.01451e-07 -1.37604e-06 9.58503e-05)
(1.85321e-05 -1.12123e-05 9.79442e-05)
(5.44263e-06 -5.50453e-06 9.622e-05)
(6.53441e-07 -8.40212e-07 9.61207e-05)
(-1.29244e-06 -4.92876e-06 9.7285e-05)
(2.74871e-06 -1.12289e-05 0.000104931)
(1.21276e-06 -1.89678e-06 0.000108541)
(8.54595e-07 -1.18895e-06 0.000100323)
(-4.28932e-06 9.68726e-06 0.000108016)
(-7.97251e-06 -1.00923e-05 0.000111764)
(2.50166e-05 -2.19087e-06 0.000102316)
(1.68269e-07 1.22856e-06 8.72523e-05)
(9.03974e-07 3.17551e-07 0.00010462)
(4.84314e-07 -4.26134e-08 0.000103033)
(-1.56871e-05 1.74402e-05 0.000108032)
(-1.59973e-06 -1.50572e-05 7.53774e-05)
(2.63812e-06 -6.23442e-07 9.76504e-05)
(1.81291e-06 -7.42319e-06 0.00010433)
(5.21742e-06 -2.26569e-05 8.96211e-05)
(7.00986e-06 -4.273e-07 8.87974e-05)
(-2.26953e-06 2.29998e-06 9.54678e-05)
(-1.16761e-06 3.51987e-05 0.000114497)
(1.18348e-06 5.27898e-05 0.000105518)
(-2.02595e-07 3.28819e-07 9.48102e-05)
(-1.0402e-05 -5.19681e-06 0.000122501)
(-1.29156e-05 -6.93884e-06 0.000111015)
(-2.02015e-06 7.21035e-07 0.000105708)
(2.56586e-06 -1.12853e-06 9.79479e-05)
(6.73453e-07 2.39261e-07 0.000103142)
(-4.58577e-06 -5.11052e-06 8.45524e-05)
(-6.65736e-06 -1.93139e-06 0.000100629)
(5.81156e-06 -1.31692e-05 0.000109051)
(-2.81424e-06 -1.23163e-08 9.5268e-05)
(7.28951e-07 3.35759e-06 0.000104581)
(-7.33997e-07 3.24432e-06 0.000102909)
(-4.98837e-07 4.32845e-07 0.000103279)
(-1.44255e-07 -3.50333e-07 0.000113718)
(-2.7421e-05 -2.47082e-05 0.000103982)
(-4.12729e-06 4.53738e-06 9.41457e-05)
(-6.3138e-06 4.16009e-06 9.75207e-05)
(1.27396e-05 -8.88859e-06 0.000100263)
(1.71131e-05 5.171e-07 0.000111129)
(2.26028e-05 -9.83481e-06 0.000119279)
(2.49706e-07 3.41271e-06 8.78002e-05)
(2.67827e-06 9.09767e-06 9.66503e-05)
(-5.96881e-06 -1.37692e-05 7.94118e-05)
(2.49073e-06 1.54734e-06 9.53698e-05)
(3.79971e-06 -6.96127e-07 9.26734e-05)
(1.09289e-06 1.64439e-07 9.67274e-05)
(-1.23947e-06 2.18041e-06 9.98262e-05)
(-3.38821e-07 -1.5524e-06 9.52058e-05)
(1.53918e-06 7.75605e-06 0.000106276)
(-6.11368e-06 -4.22675e-06 0.000102027)
(5.12874e-06 3.27134e-06 0.000100177)
(-3.09584e-07 -5.21071e-06 6.66751e-05)
(-8.79474e-06 5.51316e-06 0.000113086)
(-9.24413e-06 -1.00503e-05 7.48291e-05)
(9.89863e-06 1.05687e-05 9.46886e-05)
(-5.29275e-06 1.84843e-05 0.000111714)
(2.62078e-06 5.60955e-06 9.89262e-05)
(-6.18321e-06 -8.16011e-06 0.000110581)
(5.08249e-06 -1.23405e-06 0.000115545)
(1.31903e-05 -1.59534e-05 8.10641e-05)
(-1.63566e-07 -4.65445e-08 9.63372e-05)
(3.36711e-06 2.9999e-06 8.57859e-05)
(1.20987e-07 2.68741e-06 9.44734e-05)
(7.24429e-08 -2.87802e-07 9.97824e-05)
(9.53988e-08 -3.74887e-07 9.58775e-05)
(-2.25002e-06 2.93206e-06 0.00010366)
(1.68742e-05 6.87798e-06 6.94489e-05)
(1.07616e-05 -9.0713e-06 0.000111372)
(6.03807e-06 -4.96092e-06 0.000115774)
(-2.59464e-07 5.05867e-06 9.11156e-05)
(2.43457e-05 3.19932e-06 7.4208e-05)
(1.96117e-06 -7.47196e-06 9.16907e-05)
(-1.30735e-05 -5.63934e-06 0.000105533)
(-9.66333e-07 1.52471e-07 8.46226e-05)
(-9.81381e-07 1.13061e-06 9.98953e-05)
(3.5502e-06 -4.08095e-06 9.34121e-05)
(7.77282e-07 -6.12446e-06 9.434e-05)
(5.00767e-06 3.50911e-06 8.6241e-05)
(-1.66858e-06 2.37769e-06 9.14751e-05)
(1.01395e-05 -1.53253e-05 0.000111192)
(-3.62073e-06 3.42681e-06 9.9853e-05)
(-3.91331e-08 6.8572e-07 0.000112421)
(-1.17116e-05 1.70019e-05 9.166e-05)
(-2.09578e-07 6.36316e-08 9.37187e-05)
(-1.95602e-06 1.70545e-06 0.000108727)
(-6.47526e-08 -2.94772e-07 0.000108592)
(-3.4582e-06 -4.44776e-06 0.000115447)
(-1.71366e-06 -2.1702e-06 0.000110616)
(1.49114e-05 -1.68446e-06 0.000105213)
(-1.37819e-06 5.08713e-06 0.000108499)
(1.56459e-06 1.75765e-06 9.67874e-05)
(4.66333e-07 9.23495e-07 0.000106371)
(1.43218e-05 2.0937e-05 0.000116109)
(-2.57885e-06 -3.86519e-06 0.000102412)
(-5.04089e-08 -7.78514e-07 0.000102475)
(-1.29772e-06 4.33894e-06 0.000100304)
(5.08211e-06 -4.68906e-06 0.000106701)
(-9.73387e-06 -7.8712e-06 8.60355e-05)
(-1.83923e-05 3.10976e-06 9.52571e-05)
(-1.12989e-06 3.55017e-05 8.35704e-05)
(-2.0751e-05 -1.64245e-05 0.000111557)
(8.02754e-06 8.45215e-06 0.000102788)
(-3.21703e-07 3.36213e-07 9.82501e-05)
(5.75478e-06 -7.93771e-06 9.62985e-05)
(-1.55821e-05 -2.1229e-05 0.000120247)
(2.67134e-06 1.85049e-06 9.20037e-05)
(6.26784e-06 2.89687e-05 0.000111889)
(-2.63358e-05 7.14468e-06 0.000103054)
(1.26835e-06 -2.20831e-06 9.97309e-05)
(4.89987e-08 5.65621e-07 9.65605e-05)
(-1.34409e-06 -4.90363e-06 9.53188e-05)
(4.25646e-06 -5.46812e-06 8.45517e-05)
(3.30562e-06 -5.8394e-06 0.000121295)
(6.92781e-07 3.18674e-06 9.85254e-05)
(-2.73982e-06 -1.1731e-05 8.54799e-05)
(-3.22319e-06 -5.89467e-06 8.16714e-05)
(-1.20138e-06 5.77471e-06 9.29035e-05)
(-9.92358e-06 2.84458e-05 8.19855e-05)
(-3.52395e-05 -3.97413e-06 0.000108418)
(-9.64367e-07 -4.50325e-06 9.89063e-05)
(-2.96086e-06 1.22043e-06 9.14895e-05)
(3.35038e-07 5.64989e-06 9.97663e-05)
(-9.52103e-07 1.41489e-05 8.68085e-05)
(-1.47465e-05 2.79792e-05 0.000100364)
(-7.78186e-06 1.31139e-05 0.000120796)
(-3.45852e-06 -2.60352e-08 8.55436e-05)
(-1.41725e-06 -2.57837e-06 6.60791e-05)
(-2.47803e-05 -5.08705e-06 0.000113507)
(-1.45259e-06 -2.81414e-06 9.8306e-05)
(2.14701e-06 5.59197e-06 8.53162e-05)
(8.62758e-08 4.35797e-07 9.59525e-05)
(-2.67971e-06 -2.09461e-07 9.72016e-05)
(1.04588e-06 4.81375e-07 9.58612e-05)
(1.60083e-06 1.16724e-08 9.76613e-05)
(4.41456e-06 1.40426e-07 8.99204e-05)
(1.85856e-06 -1.42162e-05 9.54917e-05)
(-1.49844e-06 4.57771e-06 9.00756e-05)
(-2.60488e-06 -5.01832e-07 7.04957e-05)
(3.39817e-06 8.01412e-07 6.72399e-05)
(-1.16184e-05 1.9896e-05 0.000105286)
(1.02832e-05 -4.00115e-06 9.75052e-05)
(-3.05339e-08 1.66882e-07 9.70237e-05)
(-3.67132e-07 -1.31406e-06 9.43633e-05)